-34.615379 -21.005919 0.000000 -34.615379 54.142014 0.000000 42.899406 54.142014 0.000000
42.899406 54.142014 0.000000 42.899406 -21.005919 0.000000 -34.615379 -21.005919 0.000000
-34.615379 -21.005919 66.272186 42.899406 -21.005919 66.272186 42.899406 54.142014 66.272186
42.899406 54.142014 66.272186 -34.615379 54.142014 66.272186 -34.615379 -21.005919 66.272186
-34.615379 -21.005919 0.000000 42.899406 -21.005919 0.000000 42.899406 -21.005919 66.272186
42.899406 -21.005919 66.272186 -34.615379 -21.005919 66.272186 -34.615379 -21.005919 0.000000
42.899406 -21.005919 0.000000 42.899406 54.142014 0.000000 42.899406 54.142014 66.272186
42.899406 54.142014 66.272186 42.899406 -21.005919 66.272186 42.899406 -21.005919 0.000000
42.899406 54.142014 0.000000 -34.615379 54.142014 0.000000 -34.615379 54.142014 66.272186
-34.615379 54.142014 66.272186 42.899406 54.142014 66.272186 42.899406 54.142014 0.000000
-34.615379 54.142014 0.000000 -34.615379 -21.005919 0.000000 -34.615379 -21.005919 66.272186
-34.615379 -21.005919 66.272186 -34.615379 54.142014 66.272186 -34.615379 54.142014 0.000000
